PS with 16 chains and 63 internal PS monomers per chain and 63 int P2VP monomers per chainand 483 ions

17084 atoms
18076 bonds
32088 angles
15302 dihedrals
5796 impropers

18 atom types
19 bond types
23 angle types
5 dihedral types
2 improper types

0 170 xlo xhi
0 70 ylo yhi
0 70 zlo zhi

Masses

1 12
2 1.008
3 12
4 12
5 1.008
6 12
7 1.008
8 12
9 1.008
10 14.007
11 12
12 1.008
13 12
14 1.008
15 14.007
16 12
17 1.008 
18 126.9

Bond Coeffs

1 310.44 1.53 #134 1.53
2 317.45 1.51 #158.5 1.51
3 469.47 1.39 #234.5 1.39
4 239.00 1.1  #170 1.1
5 239.00 1.08 #183.5 1.08
6 310.44 1.53 #134 1.53
7 239.00 1.09 #170 1.1
8 469.0 1.40
9 483.0 1.339
10 367.0 1.08
11 317.45 1.51 #158.5 1.51
12 310.44 1.53 #134 1.53
13 239.00 1.09 #170 1.1
14 469.0 1.40
15 483.0 1.339
16 367.0 1.08
17 317.45 1.51 #158.5 1.51
18 337.0 1.481
19 340.0 1.079 

Angle Coeffs

1 43.8456 109.45
2 36.6157 109.45
3 57.6362 109.45
4 45.0048 120
5 50.0478 120
6 43.8456 109.45
7 36.6157 109.45
8 57.6362 109.45
9 63 120
10 70 124
11 70 117
12 35 120
13 35 116
14 43.8456 109.45
15 36.6157 109.45
16 57.6362 109.45
17 63 120
18 70 124
19 70 117
20 35 120
21 35 116
22 37.5 109
23 33 109.9 

Dihedral Coeffs

1 1.43403 -1 3
2 3.625 -1 2 
3 0.15 -1 2 
4 1.5 -1 2
5 1.75 -1 2 

Improper Coeffs

1 harmonic 20.0048 0
2 cvff 1.1 -1 2

Atoms

1 1 6 0.0 0.000 0.000 0.000
2 1 7 0.0 0.000 1.500 0.000
3 1 7 0.0 0.000 -1.500 0.000
4 1 7 0.0 -1.299 0.000 -0.750
5 1 6 0.0 1.299 0.000 0.750
6 1 7 0.0 1.299 1.500 0.750
7 1 8 0.4742 1.299 0.000 2.250
8 1 8 -0.4458 1.299 -1.299 3.000
9 1 9 0.1562 1.299 -2.598 2.250
10 1 8 0.2282 1.299 -1.299 4.500
11 1 9 0.0662 1.299 -2.598 5.250
12 1 8 -0.4458 1.299 0.000 5.250
13 1 9 0.1562 1.299 0.000 6.750
14 1 10 -0.6768 1.299 1.299 3.000
15 1 8 0.4742 1.299 1.299 4.500
16 1 9 0.0132 1.299 2.598 5.250
17 1 11 0.0 2.598 0.000 0.000
18 1 12 0.0 2.598 1.500 0.000
19 1 12 0.0 2.598 -1.500 0.000
20 1 11 0.0 3.897 0.000 0.750
21 1 12 0.0 3.897 1.500 0.750
22 1 13 0.05697 3.897 0.000 2.250
23 1 13 -0.23303 3.897 -1.299 3.000
24 1 14 0.22957 3.897 -2.598 2.250
25 1 13 0.14767 3.897 -1.299 4.500
26 1 14 0.17877 3.897 -2.598 5.250
27 1 13 -0.23303 3.897 0.000 5.250
28 1 14 0.22957 3.897 0.000 6.750
29 1 15 0.19967 3.897 1.299 3.000
30 1 16 -0.3979 3.897 2.598 2.250
31 1 17 0.1916 3.897 3.897 1.500
32 1 17 0.1916 3.897 4.098 2.250
33 1 17 0.1916 3.897 1.098 2.250
34 1 13 0.05697 3.897 1.299 4.500
35 1 14 0.18997 3.897 2.598 5.250
36 1 6 0.0 5.196 0.000 0.000
37 1 7 0.0 5.196 1.500 0.000
38 1 7 0.0 5.196 -1.500 0.000
39 1 6 0.0 6.495 0.000 0.750
40 1 7 0.0 6.495 1.500 0.750
41 1 8 0.4742 6.495 0.000 2.250
42 1 8 -0.4458 6.495 -1.299 3.000
43 1 9 0.1562 6.495 -2.598 2.250
44 1 8 0.2282 6.495 -1.299 4.500
45 1 9 0.0662 6.495 -2.598 5.250
46 1 8 -0.4458 6.495 0.000 5.250
47 1 9 0.1562 6.495 0.000 6.750
48 1 10 -0.6768 6.495 1.299 3.000
49 1 8 0.4742 6.495 1.299 4.500
50 1 9 0.0132 6.495 2.598 5.250
51 1 6 0.0 7.794 0.000 0.000
52 1 7 0.0 7.794 1.500 0.000
53 1 7 0.0 7.794 -1.500 0.000
54 1 6 0.0 9.093 0.000 0.750
55 1 7 0.0 9.093 -1.500 0.750
56 1 8 0.4742 9.093 0.000 2.250
57 1 8 -0.4458 9.093 -1.299 3.000
58 1 9 0.1562 9.093 -2.598 2.250
59 1 8 0.2282 9.093 -1.299 4.500
60 1 9 0.0662 9.093 -2.598 5.250
61 1 8 -0.4458 9.093 0.000 5.250
62 1 9 0.1562 9.093 0.000 6.750
63 1 10 -0.6768 9.093 1.299 3.000
64 1 8 0.4742 9.093 1.299 4.500
65 1 9 0.0132 9.093 2.598 5.250
66 1 11 0.0 10.392 0.000 0.000
67 1 12 0.0 10.392 1.500 0.000
68 1 12 0.0 10.392 -1.500 0.000
69 1 11 0.0 11.691 0.000 0.750
70 1 12 0.0 11.691 1.500 0.750
71 1 13 0.05697 11.691 0.000 2.250
72 1 13 -0.23303 11.691 -1.299 3.000
73 1 14 0.22957 11.691 -2.598 2.250
74 1 13 0.14767 11.691 -1.299 4.500
75 1 14 0.17877 11.691 -2.598 5.250
76 1 13 -0.23303 11.691 0.000 5.250
77 1 14 0.22957 11.691 0.000 6.750
78 1 15 0.19967 11.691 1.299 3.000
79 1 16 -0.3979 11.691 2.598 2.250
80 1 17 0.1916 11.691 3.897 1.500
81 1 17 0.1916 11.691 4.098 2.250
82 1 17 0.1916 11.691 1.098 2.250
83 1 13 0.05697 11.691 1.299 4.500
84 1 14 0.18997 11.691 2.598 5.250
85 1 11 0.0 12.990 0.000 0.000
86 1 12 0.0 12.990 1.500 0.000
87 1 12 0.0 12.990 -1.500 0.000
88 1 11 0.0 14.289 0.000 0.750
89 1 12 0.0 14.289 1.500 0.750
90 1 13 0.05697 14.289 0.000 2.250
91 1 13 -0.23303 14.289 -1.299 3.000
92 1 14 0.22957 14.289 -2.598 2.250
93 1 13 0.14767 14.289 -1.299 4.500
94 1 14 0.17877 14.289 -2.598 5.250
95 1 13 -0.23303 14.289 0.000 5.250
96 1 14 0.22957 14.289 0.000 6.750
97 1 15 0.19967 14.289 1.299 3.000
98 1 16 -0.3979 14.289 2.598 2.250
99 1 17 0.1916 14.289 3.897 1.500
100 1 17 0.1916 14.289 4.098 2.250
101 1 17 0.1916 14.289 1.098 2.250
102 1 13 0.05697 14.289 1.299 4.500
103 1 14 0.18997 14.289 2.598 5.250
104 1 6 0.0 15.588 0.000 0.000
105 1 7 0.0 15.588 1.500 0.000
106 1 7 0.0 15.588 -1.500 0.000
107 1 6 0.0 16.887 0.000 0.750
108 1 7 0.0 16.887 -1.500 0.750
109 1 8 0.4742 16.887 0.000 2.250
110 1 8 -0.4458 16.887 -1.299 3.000
111 1 9 0.1562 16.887 -2.598 2.250
112 1 8 0.2282 16.887 -1.299 4.500
113 1 9 0.0662 16.887 -2.598 5.250
114 1 8 -0.4458 16.887 0.000 5.250
115 1 9 0.1562 16.887 0.000 6.750
116 1 10 -0.6768 16.887 1.299 3.000
117 1 8 0.4742 16.887 1.299 4.500
118 1 9 0.0132 16.887 2.598 5.250
119 1 6 0.0 18.186 0.000 0.000
120 1 7 0.0 18.186 1.500 0.000
121 1 7 0.0 18.186 -1.500 0.000
122 1 6 0.0 19.485 0.000 0.750
123 1 7 0.0 19.485 -1.500 0.750
124 1 8 0.4742 19.485 0.000 2.250
125 1 8 -0.4458 19.485 -1.299 3.000
126 1 9 0.1562 19.485 -2.598 2.250
127 1 8 0.2282 19.485 -1.299 4.500
128 1 9 0.0662 19.485 -2.598 5.250
129 1 8 -0.4458 19.485 0.000 5.250
130 1 9 0.1562 19.485 0.000 6.750
131 1 10 -0.6768 19.485 1.299 3.000
132 1 8 0.4742 19.485 1.299 4.500
133 1 9 0.0132 19.485 2.598 5.250
134 1 11 0.0 20.784 0.000 0.000
135 1 12 0.0 20.784 1.500 0.000
136 1 12 0.0 20.784 -1.500 0.000
137 1 11 0.0 22.083 0.000 0.750
138 1 12 0.0 22.083 -1.500 0.750
139 1 13 0.05697 22.083 0.000 2.250
140 1 13 -0.23303 22.083 -1.299 3.000
141 1 14 0.22957 22.083 -2.598 2.250
142 1 13 0.14767 22.083 -1.299 4.500
143 1 14 0.17877 22.083 -2.598 5.250
144 1 13 -0.23303 22.083 0.000 5.250
145 1 14 0.22957 22.083 0.000 6.750
146 1 15 0.19967 22.083 1.299 3.000
147 1 16 -0.3979 22.083 2.598 2.250
148 1 17 0.1916 22.083 3.897 1.500
149 1 17 0.1916 22.083 4.098 2.250
150 1 17 0.1916 22.083 1.098 2.250
151 1 13 0.05697 22.083 1.299 4.500
152 1 14 0.18997 22.083 2.598 5.250
153 1 11 0.0 23.382 0.000 0.000
154 1 12 0.0 23.382 1.500 0.000
155 1 12 0.0 23.382 -1.500 0.000
156 1 11 0.0 24.681 0.000 0.750
157 1 12 0.0 24.681 -1.500 0.750
158 1 13 0.05697 24.681 0.000 2.250
159 1 13 -0.23303 24.681 -1.299 3.000
160 1 14 0.22957 24.681 -2.598 2.250
161 1 13 0.14767 24.681 -1.299 4.500
162 1 14 0.17877 24.681 -2.598 5.250
163 1 13 -0.23303 24.681 0.000 5.250
164 1 14 0.22957 24.681 0.000 6.750
165 1 15 0.19967 24.681 1.299 3.000
166 1 16 -0.3979 24.681 2.598 2.250
167 1 17 0.1916 24.681 3.897 1.500
168 1 17 0.1916 24.681 4.098 2.250
169 1 17 0.1916 24.681 1.098 2.250
170 1 13 0.05697 24.681 1.299 4.500
171 1 14 0.18997 24.681 2.598 5.250
172 1 11 0.0 25.980 0.000 0.000
173 1 12 0.0 25.980 1.500 0.000
174 1 12 0.0 25.980 -1.500 0.000
175 1 11 0.0 27.279 0.000 0.750
176 1 12 0.0 27.279 -1.500 0.750
177 1 13 0.05697 27.279 0.000 2.250
178 1 13 -0.23303 27.279 -1.299 3.000
179 1 14 0.22957 27.279 -2.598 2.250
180 1 13 0.14767 27.279 -1.299 4.500
181 1 14 0.17877 27.279 -2.598 5.250
182 1 13 -0.23303 27.279 0.000 5.250
183 1 14 0.22957 27.279 0.000 6.750
184 1 15 0.19967 27.279 1.299 3.000
185 1 16 -0.3979 27.279 2.598 2.250
186 1 17 0.1916 27.279 3.897 1.500
187 1 17 0.1916 27.279 4.098 2.250
188 1 17 0.1916 27.279 1.098 2.250
189 1 13 0.05697 27.279 1.299 4.500
190 1 14 0.18997 27.279 2.598 5.250
191 1 6 0.0 28.578 0.000 0.000
192 1 7 0.0 28.578 1.500 0.000
193 1 7 0.0 28.578 -1.500 0.000
194 1 6 0.0 29.877 0.000 0.750
195 1 7 0.0 29.877 1.500 0.750
196 1 8 0.4742 29.877 0.000 2.250
197 1 8 -0.4458 29.877 -1.299 3.000
198 1 9 0.1562 29.877 -2.598 2.250
199 1 8 0.2282 29.877 -1.299 4.500
200 1 9 0.0662 29.877 -2.598 5.250
201 1 8 -0.4458 29.877 0.000 5.250
202 1 9 0.1562 29.877 0.000 6.750
203 1 10 -0.6768 29.877 1.299 3.000
204 1 8 0.4742 29.877 1.299 4.500
205 1 9 0.0132 29.877 2.598 5.250
206 1 11 0.0 31.176 0.000 0.000
207 1 12 0.0 31.176 1.500 0.000
208 1 12 0.0 31.176 -1.500 0.000
209 1 11 0.0 32.475 0.000 0.750
210 1 12 0.0 32.475 -1.500 0.750
211 1 13 0.05697 32.475 0.000 2.250
212 1 13 -0.23303 32.475 -1.299 3.000
213 1 14 0.22957 32.475 -2.598 2.250
214 1 13 0.14767 32.475 -1.299 4.500
215 1 14 0.17877 32.475 -2.598 5.250
216 1 13 -0.23303 32.475 0.000 5.250
217 1 14 0.22957 32.475 0.000 6.750
218 1 15 0.19967 32.475 1.299 3.000
219 1 16 -0.3979 32.475 2.598 2.250
220 1 17 0.1916 32.475 3.897 1.500
221 1 17 0.1916 32.475 4.098 2.250
222 1 17 0.1916 32.475 1.098 2.250
223 1 13 0.05697 32.475 1.299 4.500
224 1 14 0.18997 32.475 2.598 5.250
225 1 11 0.0 33.774 0.000 0.000
226 1 12 0.0 33.774 1.500 0.000
227 1 12 0.0 33.774 -1.500 0.000
228 1 11 0.0 35.073 0.000 0.750
229 1 12 0.0 35.073 -1.500 0.750
230 1 13 0.05697 35.073 0.000 2.250
231 1 13 -0.23303 35.073 -1.299 3.000
232 1 14 0.22957 35.073 -2.598 2.250
233 1 13 0.14767 35.073 -1.299 4.500
234 1 14 0.17877 35.073 -2.598 5.250
235 1 13 -0.23303 35.073 0.000 5.250
236 1 14 0.22957 35.073 0.000 6.750
237 1 15 0.19967 35.073 1.299 3.000
238 1 16 -0.3979 35.073 2.598 2.250
239 1 17 0.1916 35.073 3.897 1.500
240 1 17 0.1916 35.073 4.098 2.250
241 1 17 0.1916 35.073 1.098 2.250
242 1 13 0.05697 35.073 1.299 4.500
243 1 14 0.18997 35.073 2.598 5.250
244 1 6 0.0 36.372 0.000 0.000
245 1 7 0.0 36.372 1.500 0.000
246 1 7 0.0 36.372 -1.500 0.000
247 1 6 0.0 37.671 0.000 0.750
248 1 7 0.0 37.671 1.500 0.750
249 1 8 0.4742 37.671 0.000 2.250
250 1 8 -0.4458 37.671 -1.299 3.000
251 1 9 0.1562 37.671 -2.598 2.250
252 1 8 0.2282 37.671 -1.299 4.500
253 1 9 0.0662 37.671 -2.598 5.250
254 1 8 -0.4458 37.671 0.000 5.250
255 1 9 0.1562 37.671 0.000 6.750
256 1 10 -0.6768 37.671 1.299 3.000
257 1 8 0.4742 37.671 1.299 4.500
258 1 9 0.0132 37.671 2.598 5.250
259 1 6 0.0 38.970 0.000 0.000
260 1 7 0.0 38.970 1.500 0.000
261 1 7 0.0 38.970 -1.500 0.000
262 1 6 0.0 40.269 0.000 0.750
263 1 7 0.0 40.269 1.500 0.750
264 1 8 0.4742 40.269 0.000 2.250
265 1 8 -0.4458 40.269 -1.299 3.000
266 1 9 0.1562 40.269 -2.598 2.250
267 1 8 0.2282 40.269 -1.299 4.500
268 1 9 0.0662 40.269 -2.598 5.250
269 1 8 -0.4458 40.269 0.000 5.250
270 1 9 0.1562 40.269 0.000 6.750
271 1 10 -0.6768 40.269 1.299 3.000
272 1 8 0.4742 40.269 1.299 4.500
273 1 9 0.0132 40.269 2.598 5.250
274 1 11 0.0 41.568 0.000 0.000
275 1 12 0.0 41.568 1.500 0.000
276 1 12 0.0 41.568 -1.500 0.000
277 1 11 0.0 42.867 0.000 0.750
278 1 12 0.0 42.867 1.500 0.750
279 1 13 0.05697 42.867 0.000 2.250
280 1 13 -0.23303 42.867 -1.299 3.000
281 1 14 0.22957 42.867 -2.598 2.250
282 1 13 0.14767 42.867 -1.299 4.500
283 1 14 0.17877 42.867 -2.598 5.250
284 1 13 -0.23303 42.867 0.000 5.250
285 1 14 0.22957 42.867 0.000 6.750
286 1 15 0.19967 42.867 1.299 3.000
287 1 16 -0.3979 42.867 2.598 2.250
288 1 17 0.1916 42.867 3.897 1.500
289 1 17 0.1916 42.867 4.098 2.250
290 1 17 0.1916 42.867 1.098 2.250
291 1 13 0.05697 42.867 1.299 4.500
292 1 14 0.18997 42.867 2.598 5.250
293 1 6 0.0 44.166 0.000 0.000
294 1 7 0.0 44.166 1.500 0.000
295 1 7 0.0 44.166 -1.500 0.000
296 1 6 0.0 45.465 0.000 0.750
297 1 7 0.0 45.465 -1.500 0.750
298 1 8 0.4742 45.465 0.000 2.250
299 1 8 -0.4458 45.465 -1.299 3.000
300 1 9 0.1562 45.465 -2.598 2.250
301 1 8 0.2282 45.465 -1.299 4.500
302 1 9 0.0662 45.465 -2.598 5.250
303 1 8 -0.4458 45.465 0.000 5.250
304 1 9 0.1562 45.465 0.000 6.750
305 1 10 -0.6768 45.465 1.299 3.000
306 1 8 0.4742 45.465 1.299 4.500
307 1 9 0.0132 45.465 2.598 5.250
308 1 11 0.0 46.764 0.000 0.000
309 1 12 0.0 46.764 1.500 0.000
310 1 12 0.0 46.764 -1.500 0.000
311 1 11 0.0 48.063 0.000 0.750
312 1 12 0.0 48.063 1.500 0.750
313 1 13 0.05697 48.063 0.000 2.250
314 1 13 -0.23303 48.063 -1.299 3.000
315 1 14 0.22957 48.063 -2.598 2.250
316 1 13 0.14767 48.063 -1.299 4.500
317 1 14 0.17877 48.063 -2.598 5.250
318 1 13 -0.23303 48.063 0.000 5.250
319 1 14 0.22957 48.063 0.000 6.750
320 1 15 0.19967 48.063 1.299 3.000
321 1 16 -0.3979 48.063 2.598 2.250
322 1 17 0.1916 48.063 3.897 1.500
323 1 17 0.1916 48.063 4.098 2.250
324 1 17 0.1916 48.063 1.098 2.250
325 1 13 0.05697 48.063 1.299 4.500
326 1 14 0.18997 48.063 2.598 5.250
327 1 6 0.0 49.362 0.000 0.000
328 1 7 0.0 49.362 1.500 0.000
329 1 7 0.0 49.362 -1.500 0.000
330 1 6 0.0 50.661 0.000 0.750
331 1 7 0.0 50.661 -1.500 0.750
332 1 8 0.4742 50.661 0.000 2.250
333 1 8 -0.4458 50.661 -1.299 3.000
334 1 9 0.1562 50.661 -2.598 2.250
335 1 8 0.2282 50.661 -1.299 4.500
336 1 9 0.0662 50.661 -2.598 5.250
337 1 8 -0.4458 50.661 0.000 5.250
338 1 9 0.1562 50.661 0.000 6.750
339 1 10 -0.6768 50.661 1.299 3.000
340 1 8 0.4742 50.661 1.299 4.500
341 1 9 0.0132 50.661 2.598 5.250
342 1 6 0.0 51.960 0.000 0.000
343 1 7 0.0 51.960 1.500 0.000
344 1 7 0.0 51.960 -1.500 0.000
345 1 6 0.0 53.259 0.000 0.750
346 1 7 0.0 53.259 1.500 0.750
347 1 8 0.4742 53.259 0.000 2.250
348 1 8 -0.4458 53.259 -1.299 3.000
349 1 9 0.1562 53.259 -2.598 2.250
350 1 8 0.2282 53.259 -1.299 4.500
351 1 9 0.0662 53.259 -2.598 5.250
352 1 8 -0.4458 53.259 0.000 5.250
353 1 9 0.1562 53.259 0.000 6.750
354 1 10 -0.6768 53.259 1.299 3.000
355 1 8 0.4742 53.259 1.299 4.500
356 1 9 0.0132 53.259 2.598 5.250
357 1 6 0.0 54.558 0.000 0.000
358 1 7 0.0 54.558 1.500 0.000
359 1 7 0.0 54.558 -1.500 0.000
360 1 6 0.0 55.857 0.000 0.750
361 1 7 0.0 55.857 -1.500 0.750
362 1 8 0.4742 55.857 0.000 2.250
363 1 8 -0.4458 55.857 -1.299 3.000
364 1 9 0.1562 55.857 -2.598 2.250
365 1 8 0.2282 55.857 -1.299 4.500
366 1 9 0.0662 55.857 -2.598 5.250
367 1 8 -0.4458 55.857 0.000 5.250
368 1 9 0.1562 55.857 0.000 6.750
369 1 10 -0.6768 55.857 1.299 3.000
370 1 8 0.4742 55.857 1.299 4.500
371 1 9 0.0132 55.857 2.598 5.250
372 1 6 0.0 57.156 0.000 0.000
373 1 7 0.0 57.156 1.500 0.000
374 1 7 0.0 57.156 -1.500 0.000
375 1 6 0.0 58.455 0.000 0.750
376 1 7 0.0 58.455 -1.500 0.750
377 1 8 0.4742 58.455 0.000 2.250
378 1 8 -0.4458 58.455 -1.299 3.000
379 1 9 0.1562 58.455 -2.598 2.250
380 1 8 0.2282 58.455 -1.299 4.500
381 1 9 0.0662 58.455 -2.598 5.250
382 1 8 -0.4458 58.455 0.000 5.250
383 1 9 0.1562 58.455 0.000 6.750
384 1 10 -0.6768 58.455 1.299 3.000
385 1 8 0.4742 58.455 1.299 4.500
386 1 9 0.0132 58.455 2.598 5.250
387 1 6 0.0 59.754 0.000 0.000
388 1 7 0.0 59.754 1.500 0.000
389 1 7 0.0 59.754 -1.500 0.000
390 1 6 0.0 61.053 0.000 0.750
391 1 7 0.0 61.053 -1.500 0.750
392 1 8 0.4742 61.053 0.000 2.250
393 1 8 -0.4458 61.053 -1.299 3.000
394 1 9 0.1562 61.053 -2.598 2.250
395 1 8 0.2282 61.053 -1.299 4.500
396 1 9 0.0662 61.053 -2.598 5.250
397 1 8 -0.4458 61.053 0.000 5.250
398 1 9 0.1562 61.053 0.000 6.750
399 1 10 -0.6768 61.053 1.299 3.000
400 1 8 0.4742 61.053 1.299 4.500
401 1 9 0.0132 61.053 2.598 5.250
402 1 6 0.0 62.352 0.000 0.000
403 1 7 0.0 62.352 1.500 0.000
404 1 7 0.0 62.352 -1.500 0.000
405 1 6 0.0 63.651 0.000 0.750
406 1 7 0.0 63.651 -1.500 0.750
407 1 8 0.4742 63.651 0.000 2.250
408 1 8 -0.4458 63.651 -1.299 3.000
409 1 9 0.1562 63.651 -2.598 2.250
410 1 8 0.2282 63.651 -1.299 4.500
411 1 9 0.0662 63.651 -2.598 5.250
412 1 8 -0.4458 63.651 0.000 5.250
413 1 9 0.1562 63.651 0.000 6.750
414 1 10 -0.6768 63.651 1.299 3.000
415 1 8 0.4742 63.651 1.299 4.500
416 1 9 0.0132 63.651 2.598 5.250
417 1 6 0.0 64.950 0.000 0.000
418 1 7 0.0 64.950 1.500 0.000
419 1 7 0.0 64.950 -1.500 0.000
420 1 6 0.0 66.249 0.000 0.750
421 1 7 0.0 66.249 -1.500 0.750
422 1 8 0.4742 66.249 0.000 2.250
423 1 8 -0.4458 66.249 -1.299 3.000
424 1 9 0.1562 66.249 -2.598 2.250
425 1 8 0.2282 66.249 -1.299 4.500
426 1 9 0.0662 66.249 -2.598 5.250
427 1 8 -0.4458 66.249 0.000 5.250
428 1 9 0.1562 66.249 0.000 6.750
429 1 10 -0.6768 66.249 1.299 3.000
430 1 8 0.4742 66.249 1.299 4.500
431 1 9 0.0132 66.249 2.598 5.250
432 1 11 0.0 67.548 0.000 0.000
433 1 12 0.0 67.548 1.500 0.000
434 1 12 0.0 67.548 -1.500 0.000
435 1 11 0.0 68.847 0.000 0.750
436 1 12 0.0 68.847 -1.500 0.750
437 1 13 0.05697 68.847 0.000 2.250
438 1 13 -0.23303 68.847 -1.299 3.000
439 1 14 0.22957 68.847 -2.598 2.250
440 1 13 0.14767 68.847 -1.299 4.500
441 1 14 0.17877 68.847 -2.598 5.250
442 1 13 -0.23303 68.847 0.000 5.250
443 1 14 0.22957 68.847 0.000 6.750
444 1 15 0.19967 68.847 1.299 3.000
445 1 16 -0.3979 68.847 2.598 2.250
446 1 17 0.1916 68.847 3.897 1.500
447 1 17 0.1916 68.847 4.098 2.250
448 1 17 0.1916 68.847 1.098 2.250
449 1 13 0.05697 68.847 1.299 4.500
450 1 14 0.18997 68.847 2.598 5.250
451 1 11 0.0 70.146 0.000 0.000
452 1 12 0.0 70.146 1.500 0.000
453 1 12 0.0 70.146 -1.500 0.000
454 1 11 0.0 71.445 0.000 0.750
455 1 12 0.0 71.445 -1.500 0.750
456 1 13 0.05697 71.445 0.000 2.250
457 1 13 -0.23303 71.445 -1.299 3.000
458 1 14 0.22957 71.445 -2.598 2.250
459 1 13 0.14767 71.445 -1.299 4.500
460 1 14 0.17877 71.445 -2.598 5.250
461 1 13 -0.23303 71.445 0.000 5.250
462 1 14 0.22957 71.445 0.000 6.750
463 1 15 0.19967 71.445 1.299 3.000
464 1 16 -0.3979 71.445 2.598 2.250
465 1 17 0.1916 71.445 3.897 1.500
466 1 17 0.1916 71.445 4.098 2.250
467 1 17 0.1916 71.445 1.098 2.250
468 1 13 0.05697 71.445 1.299 4.500
469 1 14 0.18997 71.445 2.598 5.250
470 1 6 0.0 72.744 0.000 0.000
471 1 7 0.0 72.744 1.500 0.000
472 1 7 0.0 72.744 -1.500 0.000
473 1 6 0.0 74.043 0.000 0.750
474 1 7 0.0 74.043 -1.500 0.750
475 1 8 0.4742 74.043 0.000 2.250
476 1 8 -0.4458 74.043 -1.299 3.000
477 1 9 0.1562 74.043 -2.598 2.250
478 1 8 0.2282 74.043 -1.299 4.500
479 1 9 0.0662 74.043 -2.598 5.250
480 1 8 -0.4458 74.043 0.000 5.250
481 1 9 0.1562 74.043 0.000 6.750
482 1 10 -0.6768 74.043 1.299 3.000
483 1 8 0.4742 74.043 1.299 4.500
484 1 9 0.0132 74.043 2.598 5.250
485 1 6 0.0 75.342 0.000 0.000
486 1 7 0.0 75.342 1.500 0.000
487 1 7 0.0 75.342 -1.500 0.000
488 1 6 0.0 76.641 0.000 0.750
489 1 7 0.0 76.641 -1.500 0.750
490 1 8 0.4742 76.641 0.000 2.250
491 1 8 -0.4458 76.641 -1.299 3.000
492 1 9 0.1562 76.641 -2.598 2.250
493 1 8 0.2282 76.641 -1.299 4.500
494 1 9 0.0662 76.641 -2.598 5.250
495 1 8 -0.4458 76.641 0.000 5.250
496 1 9 0.1562 76.641 0.000 6.750
497 1 10 -0.6768 76.641 1.299 3.000
498 1 8 0.4742 76.641 1.299 4.500
499 1 9 0.0132 76.641 2.598 5.250
500 1 11 0.0 77.940 0.000 0.000
501 1 12 0.0 77.940 1.500 0.000
502 1 12 0.0 77.940 -1.500 0.000
503 1 11 0.0 79.239 0.000 0.750
504 1 12 0.0 79.239 1.500 0.750
505 1 13 0.05697 79.239 0.000 2.250
506 1 13 -0.23303 79.239 -1.299 3.000
507 1 14 0.22957 79.239 -2.598 2.250
508 1 13 0.14767 79.239 -1.299 4.500
509 1 14 0.17877 79.239 -2.598 5.250
510 1 13 -0.23303 79.239 0.000 5.250
511 1 14 0.22957 79.239 0.000 6.750
512 1 15 0.19967 79.239 1.299 3.000
513 1 16 -0.3979 79.239 2.598 2.250
514 1 17 0.1916 79.239 3.897 1.500
515 1 17 0.1916 79.239 4.098 2.250
516 1 17 0.1916 79.239 1.098 2.250
517 1 13 0.05697 79.239 1.299 4.500
518 1 14 0.18997 79.239 2.598 5.250
519 1 11 0.0 80.538 0.000 0.000
520 1 12 0.0 80.538 1.500 0.000
521 1 12 0.0 80.538 -1.500 0.000
522 1 11 0.0 81.837 0.000 0.750
523 1 12 0.0 81.837 -1.500 0.750
524 1 13 0.05697 81.837 0.000 2.250
525 1 13 -0.23303 81.837 -1.299 3.000
526 1 14 0.22957 81.837 -2.598 2.250
527 1 13 0.14767 81.837 -1.299 4.500
528 1 14 0.17877 81.837 -2.598 5.250
529 1 13 -0.23303 81.837 0.000 5.250
530 1 14 0.22957 81.837 0.000 6.750
531 1 15 0.19967 81.837 1.299 3.000
532 1 16 -0.3979 81.837 2.598 2.250
533 1 17 0.1916 81.837 3.897 1.500
534 1 17 0.1916 81.837 4.098 2.250
535 1 17 0.1916 81.837 1.098 2.250
536 1 13 0.05697 81.837 1.299 4.500
537 1 14 0.18997 81.837 2.598 5.250
538 1 6 0.0 83.136 0.000 0.000
539 1 7 0.0 83.136 1.500 0.000
540 1 7 0.0 83.136 -1.500 0.000
541 1 6 0.0 84.435 0.000 0.750
542 1 7 0.0 84.435 1.500 0.750
543 1 8 0.4742 84.435 0.000 2.250
544 1 8 -0.4458 84.435 -1.299 3.000
545 1 9 0.1562 84.435 -2.598 2.250
546 1 8 0.2282 84.435 -1.299 4.500
547 1 9 0.0662 84.435 -2.598 5.250
548 1 8 -0.4458 84.435 0.000 5.250
549 1 9 0.1562 84.435 0.000 6.750
550 1 10 -0.6768 84.435 1.299 3.000
551 1 8 0.4742 84.435 1.299 4.500
552 1 9 0.0132 84.435 2.598 5.250
553 1 6 0.0 86.105 0.000 0.000
554 1 7 0.0 86.105 1.500 0.000
555 1 7 0.0 86.105 -1.500 0.000
556 1 6 0.0 87.404 0.000 0.750
557 1 7 0.0 87.404 1.500 0.750
558 1 8 0.4742 87.404 0.000 2.250
559 1 8 -0.4458 87.404 -1.299 3.000
560 1 9 0.1562 87.404 -2.598 2.250
561 1 8 0.2282 87.404 -1.299 4.500
562 1 9 0.0662 87.404 -2.598 5.250
563 1 8 -0.4458 87.404 0.000 5.250
564 1 9 0.1562 87.404 0.000 6.750
565 1 10 -0.6768 87.404 1.299 3.000
566 1 8 0.4742 87.404 1.299 4.500
567 1 9 0.0132 87.404 2.598 5.250
568 1 11 0.0 89.074 0.000 0.000
569 1 12 0.0 89.074 1.500 0.000
570 1 12 0.0 89.074 -1.500 0.000
571 1 11 0.0 90.373 0.000 0.750
572 1 12 0.0 90.373 -1.500 0.750
573 1 13 0.05697 90.373 0.000 2.250
574 1 13 -0.23303 90.373 -1.299 3.000
575 1 14 0.22957 90.373 -2.598 2.250
576 1 13 0.14767 90.373 -1.299 4.500
577 1 14 0.17877 90.373 -2.598 5.250
578 1 13 -0.23303 90.373 0.000 5.250
579 1 14 0.22957 90.373 0.000 6.750
580 1 15 0.19967 90.373 1.299 3.000
581 1 16 -0.3979 90.373 2.598 2.250
582 1 17 0.1916 90.373 3.897 1.500
583 1 17 0.1916 90.373 4.098 2.250
584 1 17 0.1916 90.373 1.098 2.250
585 1 13 0.05697 90.373 1.299 4.500
586 1 14 0.18997 90.373 2.598 5.250
587 1 11 0.0 92.043 0.000 0.000
588 1 12 0.0 92.043 1.500 0.000
589 1 12 0.0 92.043 -1.500 0.000
590 1 11 0.0 93.342 0.000 0.750
591 1 12 0.0 93.342 -1.500 0.750
592 1 13 0.05697 93.342 0.000 2.250
593 1 13 -0.23303 93.342 -1.299 3.000
594 1 14 0.22957 93.342 -2.598 2.250
595 1 13 0.14767 93.342 -1.299 4.500
596 1 14 0.17877 93.342 -2.598 5.250
597 1 13 -0.23303 93.342 0.000 5.250
598 1 14 0.22957 93.342 0.000 6.750
599 1 15 0.19967 93.342 1.299 3.000
600 1 16 -0.3979 93.342 2.598 2.250
601 1 17 0.1916 93.342 3.897 1.500
602 1 17 0.1916 93.342 4.098 2.250
603 1 17 0.1916 93.342 1.098 2.250
604 1 13 0.05697 93.342 1.299 4.500
605 1 14 0.18997 93.342 2.598 5.250
606 1 11 0.0 95.013 0.000 0.000
607 1 12 0.0 95.013 1.500 0.000
608 1 12 0.0 95.013 -1.500 0.000
609 1 11 0.0 96.312 0.000 0.750
610 1 12 0.0 96.312 1.500 0.750
611 1 13 0.05697 96.312 0.000 2.250
612 1 13 -0.23303 96.312 -1.299 3.000
613 1 14 0.22957 96.312 -2.598 2.250
614 1 13 0.14767 96.312 -1.299 4.500
615 1 14 0.17877 96.312 -2.598 5.250
616 1 13 -0.23303 96.312 0.000 5.250
617 1 14 0.22957 96.312 0.000 6.750
618 1 15 0.19967 96.312 1.299 3.000
619 1 16 -0.3979 96.312 2.598 2.250
620 1 17 0.1916 96.312 3.897 1.500
621 1 17 0.1916 96.312 4.098 2.250
622 1 17 0.1916 96.312 1.098 2.250
623 1 13 0.05697 96.312 1.299 4.500
624 1 14 0.18997 96.312 2.598 5.250
625 1 6 0.0 97.982 0.000 0.000
626 1 7 0.0 97.982 1.500 0.000
627 1 7 0.0 97.982 -1.500 0.000
628 1 6 0.0 99.281 0.000 0.750
629 1 7 0.0 99.281 1.500 0.750
630 1 8 0.4742 99.281 0.000 2.250
631 1 8 -0.4458 99.281 -1.299 3.000
632 1 9 0.1562 99.281 -2.598 2.250
633 1 8 0.2282 99.281 -1.299 4.500
634 1 9 0.0662 99.281 -2.598 5.250
635 1 8 -0.4458 99.281 0.000 5.250
636 1 9 0.1562 99.281 0.000 6.750
637 1 10 -0.6768 99.281 1.299 3.000
638 1 8 0.4742 99.281 1.299 4.500
639 1 9 0.0132 99.281 2.598 5.250
640 1 11 0.0 100.951 0.000 0.000
641 1 12 0.0 100.951 1.500 0.000
642 1 12 0.0 100.951 -1.500 0.000
643 1 11 0.0 102.250 0.000 0.750
644 1 12 0.0 102.250 -1.500 0.750
645 1 13 0.05697 102.250 0.000 2.250
646 1 13 -0.23303 102.250 -1.299 3.000
647 1 14 0.22957 102.250 -2.598 2.250
648 1 13 0.14767 102.250 -1.299 4.500
649 1 14 0.17877 102.250 -2.598 5.250
650 1 13 -0.23303 102.250 0.000 5.250
651 1 14 0.22957 102.250 0.000 6.750
652 1 15 0.19967 102.250 1.299 3.000
653 1 16 -0.3979 102.250 2.598 2.250
654 1 17 0.1916 102.250 3.897 1.500
655 1 17 0.1916 102.250 4.098 2.250
656 1 17 0.1916 102.250 1.098 2.250
657 1 13 0.05697 102.250 1.299 4.500
658 1 14 0.18997 102.250 2.598 5.250
659 1 6 0.0 103.920 0.000 0.000
660 1 7 0.0 103.920 1.500 0.000
661 1 7 0.0 103.920 -1.500 0.000
662 1 6 0.0 105.219 0.000 0.750
663 1 7 0.0 105.219 -1.500 0.750
664 1 8 0.4742 105.219 0.000 2.250
665 1 8 -0.4458 105.219 -1.299 3.000
666 1 9 0.1562 105.219 -2.598 2.250
667 1 8 0.2282 105.219 -1.299 4.500
668 1 9 0.0662 105.219 -2.598 5.250
669 1 8 -0.4458 105.219 0.000 5.250
670 1 9 0.1562 105.219 0.000 6.750
671 1 10 -0.6768 105.219 1.299 3.000
672 1 8 0.4742 105.219 1.299 4.500
673 1 9 0.0132 105.219 2.598 5.250
674 1 6 0.0 106.518 0.000 0.000
675 1 7 0.0 106.518 1.500 0.000
676 1 7 0.0 106.518 -1.500 0.000
677 1 6 0.0 107.817 0.000 0.750
678 1 7 0.0 107.817 1.500 0.750
679 1 8 0.4742 107.817 0.000 2.250
680 1 8 -0.4458 107.817 -1.299 3.000
681 1 9 0.1562 107.817 -2.598 2.250
682 1 8 0.2282 107.817 -1.299 4.500
683 1 9 0.0662 107.817 -2.598 5.250
684 1 8 -0.4458 107.817 0.000 5.250
685 1 9 0.1562 107.817 0.000 6.750
686 1 10 -0.6768 107.817 1.299 3.000
687 1 8 0.4742 107.817 1.299 4.500
688 1 9 0.0132 107.817 2.598 5.250
689 1 6 0.0 109.116 0.000 0.000
690 1 7 0.0 109.116 1.500 0.000
691 1 7 0.0 109.116 -1.500 0.000
692 1 6 0.0 110.415 0.000 0.750
693 1 7 0.0 110.415 1.500 0.750
694 1 8 0.4742 110.415 0.000 2.250
695 1 8 -0.4458 110.415 -1.299 3.000
696 1 9 0.1562 110.415 -2.598 2.250
697 1 8 0.2282 110.415 -1.299 4.500
698 1 9 0.0662 110.415 -2.598 5.250
699 1 8 -0.4458 110.415 0.000 5.250
700 1 9 0.1562 110.415 0.000 6.750
701 1 10 -0.6768 110.415 1.299 3.000
702 1 8 0.4742 110.415 1.299 4.500
703 1 9 0.0132 110.415 2.598 5.250
704 1 11 0.0 111.714 0.000 0.000
705 1 12 0.0 111.714 1.500 0.000
706 1 12 0.0 111.714 -1.500 0.000
707 1 11 0.0 113.013 0.000 0.750
708 1 12 0.0 113.013 1.500 0.750
709 1 13 0.05697 113.013 0.000 2.250
710 1 13 -0.23303 113.013 -1.299 3.000
711 1 14 0.22957 113.013 -2.598 2.250
712 1 13 0.14767 113.013 -1.299 4.500
713 1 14 0.17877 113.013 -2.598 5.250
714 1 13 -0.23303 113.013 0.000 5.250
715 1 14 0.22957 113.013 0.000 6.750
716 1 15 0.19967 113.013 1.299 3.000
717 1 16 -0.3979 113.013 2.598 2.250
718 1 17 0.1916 113.013 3.897 1.500
719 1 17 0.1916 113.013 4.098 2.250
720 1 17 0.1916 113.013 1.098 2.250
721 1 13 0.05697 113.013 1.299 4.500
722 1 14 0.18997 113.013 2.598 5.250
723 1 6 0.0 114.312 0.000 0.000
724 1 7 0.0 114.312 1.500 0.000
725 1 7 0.0 114.312 -1.500 0.000
726 1 6 0.0 115.611 0.000 0.750
727 1 7 0.0 115.611 1.500 0.750
728 1 8 0.4742 115.611 0.000 2.250
729 1 8 -0.4458 115.611 -1.299 3.000
730 1 9 0.1562 115.611 -2.598 2.250
731 1 8 0.2282 115.611 -1.299 4.500
732 1 9 0.0662 115.611 -2.598 5.250
733 1 8 -0.4458 115.611 0.000 5.250
734 1 9 0.1562 115.611 0.000 6.750
735 1 10 -0.6768 115.611 1.299 3.000
736 1 8 0.4742 115.611 1.299 4.500
737 1 9 0.0132 115.611 2.598 5.250
738 1 11 0.0 116.910 0.000 0.000
739 1 12 0.0 116.910 1.500 0.000
740 1 12 0.0 116.910 -1.500 0.000
741 1 11 0.0 118.209 0.000 0.750
742 1 12 0.0 118.209 1.500 0.750
743 1 13 0.05697 118.209 0.000 2.250
744 1 13 -0.23303 118.209 -1.299 3.000
745 1 14 0.22957 118.209 -2.598 2.250
746 1 13 0.14767 118.209 -1.299 4.500
747 1 14 0.17877 118.209 -2.598 5.250
748 1 13 -0.23303 118.209 0.000 5.250
749 1 14 0.22957 118.209 0.000 6.750
750 1 15 0.19967 118.209 1.299 3.000
751 1 16 -0.3979 118.209 2.598 2.250
752 1 17 0.1916 118.209 3.897 1.500
753 1 17 0.1916 118.209 4.098 2.250
754 1 17 0.1916 118.209 1.098 2.250
755 1 13 0.05697 118.209 1.299 4.500
756 1 14 0.18997 118.209 2.598 5.250
757 1 11 0.0 119.508 0.000 0.000
758 1 12 0.0 119.508 1.500 0.000
759 1 12 0.0 119.508 -1.500 0.000
760 1 11 0.0 120.807 0.000 0.750
761 1 12 0.0 120.807 1.500 0.750
762 1 13 0.05697 120.807 0.000 2.250
763 1 13 -0.23303 120.807 -1.299 3.000
764 1 14 0.22957 120.807 -2.598 2.250
765 1 13 0.14767 120.807 -1.299 4.500
766 1 14 0.17877 120.807 -2.598 5.250
767 1 13 -0.23303 120.807 0.000 5.250
768 1 14 0.22957 120.807 0.000 6.750
769 1 15 0.19967 120.807 1.299 3.000
770 1 16 -0.3979 120.807 2.598 2.250
771 1 17 0.1916 120.807 3.897 1.500
772 1 17 0.1916 120.807 4.098 2.250
773 1 17 0.1916 120.807 1.098 2.250
774 1 13 0.05697 120.807 1.299 4.500
775 1 14 0.18997 120.807 2.598 5.250
776 1 11 0.0 122.106 0.000 0.000
777 1 12 0.0 122.106 1.500 0.000
778 1 12 0.0 122.106 -1.500 0.000
779 1 11 0.0 123.405 0.000 0.750
780 1 12 0.0 123.405 1.500 0.750
781 1 13 0.05697 123.405 0.000 2.250
782 1 13 -0.23303 123.405 -1.299 3.000
783 1 14 0.22957 123.405 -2.598 2.250
784 1 13 0.14767 123.405 -1.299 4.500
785 1 14 0.17877 123.405 -2.598 5.250
786 1 13 -0.23303 123.405 0.000 5.250
787 1 14 0.22957 123.405 0.000 6.750
788 1 15 0.19967 123.405 1.299 3.000
789 1 16 -0.3979 123.405 2.598 2.250
790 1 17 0.1916 123.405 3.897 1.500
791 1 17 0.1916 123.405 4.098 2.250
792 1 17 0.1916 123.405 1.098 2.250
793 1 13 0.05697 123.405 1.299 4.500
794 1 14 0.18997 123.405 2.598 5.250
795 1 6 0.0 124.704 0.000 0.000
796 1 7 0.0 124.704 1.500 0.000
797 1 7 0.0 124.704 -1.500 0.000
798 1 6 0.0 126.003 0.000 0.750
799 1 7 0.0 126.003 -1.500 0.750
800 1 8 0.4742 126.003 0.000 2.250
801 1 8 -0.4458 126.003 -1.299 3.000
802 1 9 0.1562 126.003 -2.598 2.250
803 1 8 0.2282 126.003 -1.299 4.500
804 1 9 0.0662 126.003 -2.598 5.250
805 1 8 -0.4458 126.003 0.000 5.250
806 1 9 0.1562 126.003 0.000 6.750
807 1 10 -0.6768 126.003 1.299 3.000
808 1 8 0.4742 126.003 1.299 4.500
809 1 9 0.0132 126.003 2.598 5.250
810 1 11 0.0 127.302 0.000 0.000
811 1 12 0.0 127.302 1.500 0.000
812 1 12 0.0 127.302 -1.500 0.000
813 1 11 0.0 128.601 0.000 0.750
814 1 12 0.0 128.601 1.500 0.750
815 1 13 0.05697 128.601 0.000 2.250
816 1 13 -0.23303 128.601 -1.299 3.000
817 1 14 0.22957 128.601 -2.598 2.250
818 1 13 0.14767 128.601 -1.299 4.500
819 1 14 0.17877 128.601 -2.598 5.250
820 1 13 -0.23303 128.601 0.000 5.250
821 1 14 0.22957 128.601 0.000 6.750
822 1 15 0.19967 128.601 1.299 3.000
823 1 16 -0.3979 128.601 2.598 2.250
824 1 17 0.1916 128.601 3.897 1.500
825 1 17 0.1916 128.601 4.098 2.250
826 1 17 0.1916 128.601 1.098 2.250
827 1 13 0.05697 128.601 1.299 4.500
828 1 14 0.18997 128.601 2.598 5.250
829 1 11 0.0 129.900 0.000 0.000
830 1 12 0.0 129.900 1.500 0.000
831 1 12 0.0 129.900 -1.500 0.000
832 1 11 0.0 131.199 0.000 0.750